<UPF version="2.0.1">
  <PP_INFO>
Generated using "atomic" code by A. Dal Corso  v.6.3
Author: ADC
Generation date:  6Sep2018
Pseudopotential type: PAW
Element: Mg
Functional:  SLA  PW   PBX  PBC
    Suggested minimum cutoff for wavefunctions:  13. Ry
    Suggested minimum cutoff for charge density:  87. Ry
    The Pseudo was generated with a Scalar-Relativistic Calculation
    L component and cutoff radius for Local Potential:  2   2.3000
    Pseudopotential contains additional information for GIPAW reconstruction.
    Valence configuration:
    nl pn  l   occ       Rcut    Rcut US       E pseu
    3S  1  0  2.00      2.300      2.500    -0.345843
    3P  2  1  0.00      2.400      2.600    -0.097756
    Generation configuration:
    3S  1  0  2.00      2.300      2.500    -0.345843
    3S  2  0  0.00      1.400      2.500     6.500000
    3P  2  1  0.00      2.400      2.600    -0.097756
    3P  3  1  0.00      1.400      2.600     6.300000
    3D  3  2 -2.00      2.300      2.300     0.300000
    Pseudization used: troullier-martins

    <PP_INPUTFILE>
 &amp;input
   title='Mg c',
   zed=12.0,
   rel=1,
   config='[Ne] 3s2.0 3p0 3d-2',
   iswitch=3,
   dft='PBE'
 /
 &amp;inputp
   lpaw = .true.,
   use_xsd=.FALSE.,
   pseudotype=3,
   file_pseudopw='Mg.pbe-n-kjpaw_psl.0.3.0.UPF',
   author='ADC',
   lloc=2,
   which_augfun='PSQ',
   rmatch_augfun=1.9,
   nlcc=.true.,
   new_core_ps=.true.,
   rcore=2.1,
   tm=.true.
 /
5
3S  1  0  2.00  0.00  2.30  2.50  0.0
3S  2  0  0.00  6.50  1.40  2.50  0.0
3P  2  1  0.00  0.00  2.40  2.60  0.0
3P  3  1  0.00  6.30  1.40  2.60  0.0
3D  3  2 -2.00  0.30  2.30  2.30  0.0
</PP_INPUTFILE>
  </PP_INFO>
  <!--
 END OF HUMAN READABLE SECTION 
-->
  <PP_HEADER generated="Generated using &quot;atomic&quot; code by A. Dal Corso  v.6.3" author="ADC" date=" 6Sep2018" comment="" element="Mg" pseudo_type="PAW" relativistic="scalar" is_ultrasoft="true" is_paw="true" is_coulomb="false" has_so="false" has_wfc="true" has_gipaw="true" paw_as_gipaw="true" core_correction="true" functional=" SLA  PW   PBX  PBC" z_valence="2.000000000000e0" total_psenergy="-3.350641097752e1" wfc_cutoff="1.297733872704e1" rho_cutoff="8.664164069120e1" l_max="1" l_max_rho="2" l_local="2" mesh_size="1129" number_of_wfc="2" number_of_proj="4"/>
  <PP_MESH dx="1.250000000000e-2" mesh="1129" xmin="-7.000000000000e0" rmax="1.000000000000e2" zmesh="1.200000000000e1">
    <PP_R>
      7.599016379620968e-5 7.694600238908519e-5 7.791386395138184e-5 7.889389971343784e-5
      7.988626280783500e-5 8.089110829332576e-5 8.190859317906154e-5 8.293887644912596e-5
      8.398211908737586e-5 8.503848410259621e-5 8.610813655396974e-5 8.719124357686821e-5
      8.828797440896750e-5 8.939850041669139e-5 9.052299512198816e-5 9.166163422944321e-5
      9.281459565373360e-5 9.398205954742769e-5 9.516420832913395e-5 9.636122671200480e-5
      9.757330173259788e-5 9.880062278010106e-5 1.000433816259251e-4 1.013017724536679e-4
      1.025759918894567e-4 1.038662390326708e-4 1.051727154870512e-4 1.064956253922020e-4
      1.078351754554873e-4 1.091915749843300e-4 1.105650359189160e-4 1.119557728653106e-4
      1.133640031289912e-4 1.147899467488014e-4 1.162338265313332e-4 1.176958680857401e-4
      1.191762998589895e-4 1.206753531715580e-4 1.221932622535753e-4 1.237302642814239e-4
      1.252865994147977e-4 1.268625108342276e-4 1.284582447790792e-4 1.300740505860277e-4
      1.317101807280181e-4 1.333668908537137e-4 1.350444398274422e-4 1.367430897696438e-4
      1.384631060978278e-4 1.402047575680451e-4 1.419683163168812e-4 1.437540579039785e-4
      1.455622613550933e-4 1.473932092056934e-4 1.492471875451058e-4 1.511244860612179e-4
      1.530253980857423e-4 1.549502206400501e-4 1.568992544815815e-4 1.588728041508397e-4
      1.608711780189758e-4 1.628946883359722e-4 1.649436512794331e-4 1.670183870039866e-4
      1.691192196913112e-4 1.712464776007883e-4 1.734004931207941e-4 1.755816028206362e-4
      1.777901475031423e-4 1.800264722579129e-4 1.822909265152404e-4 1.845838641007098e-4
      1.869056432904836e-4 1.892566268672839e-4 1.916371821770780e-4 1.940476811864762e-4
      1.964885005408527e-4 1.989600216231978e-4 2.014626306137087e-4 2.039967185501320e-4
      2.065626813888632e-4 2.091609200668166e-4 2.117918405640715e-4 2.144558539673084e-4
      2.171533765340416e-4 2.198848297576601e-4 2.226506404332875e-4 2.254512407244689e-4
      2.282870682306974e-4 2.311585660557907e-4 2.340661828771261e-4 2.370103730157473e-4
      2.399915965073536e-4 2.430103191741806e-4 2.460670126977872e-4 2.491621546927550e-4
      2.522962287813180e-4 2.554697246689285e-4 2.586831382207757e-4 2.619369715392651e-4
      2.652317330424723e-4 2.685679375435855e-4 2.719461063313457e-4 2.753667672514985e-4
      2.788304547892727e-4 2.823377101528926e-4 2.858890813581445e-4 2.894851233140045e-4
      2.931263979093440e-4 2.968134741007274e-4 3.005469280013109e-4 3.043273429708619e-4
      3.081553097069110e-4 3.120314263370484e-4 3.159562985123840e-4 3.199305395021803e-4
      3.239547702896775e-4 3.280296196691236e-4 3.321557243440242e-4 3.363337290266299e-4
      3.405642865386722e-4 3.448480579133697e-4 3.491857124987150e-4 3.535779280620617e-4
      3.580253908960283e-4 3.625287959257308e-4 3.670888468173671e-4 3.717062560881669e-4
      3.763817452177223e-4 3.811160447607228e-4 3.859098944611038e-4 3.907640433676343e-4
      3.956792499509565e-4 4.006562822220988e-4 4.056959178524802e-4 4.107989442954210e-4
      4.159661589091847e-4 4.211983690815678e-4 4.264963923560543e-4 4.318610565595604e-4
      4.372931999317820e-4 4.427936712561729e-4 4.483633299925684e-4 4.540030464114770e-4
      4.597137017300643e-4 4.654961882498417e-4 4.713514094960923e-4 4.772802803590487e-4
      4.832837272368451e-4 4.893626881802711e-4 4.955181130393411e-4 5.017509636117133e-4
      5.080622137929699e-4 5.144528497287918e-4 5.209238699690467e-4 5.274762856238123e-4
      5.341111205213653e-4 5.408294113681572e-4 5.476322079108010e-4 5.545205731000979e-4
      5.614955832571223e-4 5.685583282414023e-4 5.757099116212110e-4 5.829514508460010e-4
      5.902840774210104e-4 5.977089370840582e-4 6.052271899845743e-4 6.128400108648697e-4
      6.205485892436948e-4 6.283541296021062e-4 6.362578515716634e-4 6.442609901250060e-4
      6.523647957688144e-4 6.605705347392078e-4 6.688794891995968e-4 6.772929574410175e-4
      6.858122540850026e-4 6.944387102889841e-4 7.031736739542943e-4 7.120185099367790e-4
      7.209746002600529e-4 7.300433443314523e-4 7.392261591606881e-4 7.485244795812597e-4
      7.579397584746520e-4 7.674734669973452e-4 7.771270948106938e-4 7.869021503136843e-4
      7.968001608786253e-4 8.068226730898077e-4 8.169712529851521e-4 8.272474863009178e-4
      8.376529787194656e-4 8.481893561201556e-4 8.588582648333956e-4 8.696613718978755e-4
      8.806003653210546e-4 8.916769543429107e-4 9.028928697030127e-4 9.142498639109572e-4
      9.257497115201922e-4 9.373942094053053e-4 9.491851770427814e-4 9.611244567953017e-4
      9.732139141996210e-4 9.854554382580513e-4 9.978509417336351e-4 1.010402361449008e-3
      1.023111658589036e-3 1.035980819007258e-3 1.049011853536166e-3 1.062206798301423e-3
      1.075567715039989e-3 1.089096691422290e-3 1.102795841378412e-3 1.116667305428402e-3
      1.130713251016744e-3 1.144935872851012e-3 1.159337393244801e-3 1.173920062464978e-3
      1.188686159083271e-3 1.203637990332323e-3 1.218777892466185e-3 1.234108231125367e-3
      1.249631401706476e-3 1.265349829736495e-3 1.281265971251786e-3 1.297382313181841e-3
      1.313701373737874e-3 1.330225702806302e-3 1.346957882347156e-3 1.363900526797536e-3
      1.381056283480104e-3 1.398427833016747e-3 1.416017889747423e-3 1.433829202154282e-3
      1.451864553291126e-3 1.470126761218263e-3 1.488618679442836e-3 1.507343197364693e-3
      1.526303240727848e-3 1.545501772077657e-3 1.564941791223701e-3 1.584626335708522e-3
      1.604558481282244e-3 1.624741342383166e-3 1.645178072624398e-3 1.665871865286619e-3
      1.686825953817032e-3 1.708043612334605e-3 1.729528156141645e-3 1.751282942241836e-3
      1.773311369864765e-3 1.795616880997064e-3 1.818202960920231e-3 1.841073138755204e-3
      1.864230988013800e-3 1.887680127157081e-3 1.911424220160744e-3 1.935466977087631e-3
      1.959812154667426e-3 1.984463556883656e-3 2.009425035568073e-3 2.034700491002503e-3
      2.060293872528283e-3 2.086209179163346e-3 2.112450460227079e-3 2.139021815973036e-3
      2.165927398229612e-3 2.193171411048776e-3 2.220758111362957e-3 2.248691809650207e-3
      2.276976870607714e-3 2.305617713833799e-3 2.334618814518485e-3 2.363984704142758e-3
      2.393719971186619e-3 2.423829261846040e-3 2.454317280758941e-3 2.485188791740309e-3
      2.516448618526542e-3 2.548101645529175e-3 2.580152818598074e-3 2.612607145794241e-3
      2.645469698172330e-3 2.678745610573006e-3 2.712440082425286e-3 2.746558378558948e-3
      2.781105830027173e-3 2.816087834939546e-3 2.851509859305502e-3 2.887377437888419e-3
      2.923696175070420e-3 2.960471745728080e-3 2.997709896119139e-3 3.035416444780353e-3
      3.073597283436667e-3 3.112258377921802e-3 3.151405769110424e-3 3.191045573862055e-3
      3.231183985976834e-3 3.271827277163318e-3 3.312981798018444e-3 3.354653979019822e-3
      3.396850331530519e-3 3.439577448816462e-3 3.482842007076660e-3 3.526650766486360e-3
      3.571010572253349e-3 3.615928355687531e-3 3.661411135283952e-3 3.707466017819460e-3
      3.754100199463152e-3 3.801320966900784e-3 3.849135698473344e-3 3.897551865329915e-3
      3.946577032595078e-3 3.996218860550957e-3 4.046485105834164e-3 4.097383622647798e-3
      4.148922363988662e-3 4.201109382889948e-3 4.253952833679534e-3 4.307460973254118e-3
      4.361642162369366e-3 4.416504866946316e-3 4.472057659394179e-3 4.528309219949792e-3
      4.585268338033938e-3 4.642943913624700e-3 4.701344958648113e-3 4.760480598386275e-3
      4.820360072903207e-3 4.880992738488629e-3 4.942388069119893e-3 5.004555657942329e-3
      5.067505218768163e-3 5.131246587594354e-3 5.195789724139456e-3 5.261144713399865e-3
      5.327321767225630e-3 5.394331225916046e-3 5.462183559835364e-3 5.530889371048804e-3
      5.600459394979146e-3 5.670904502084183e-3 5.742235699555215e-3 5.814464133036972e-3
      5.887601088369134e-3 5.961657993349768e-3 6.036646419520954e-3 6.112578083976844e-3
      6.189464851194492e-3 6.267318734887704e-3 6.346151899884194e-3 6.425976664026392e-3
      6.506805500096097e-3 6.588651037763391e-3 6.671526065560050e-3 6.755443532877770e-3
      6.840416551991567e-3 6.926458400108547e-3 7.013582521442534e-3 7.101802529314739e-3
      7.191132208280875e-3 7.281585516285033e-3 7.373176586840611e-3 7.465919731238726e-3
      7.559829440784380e-3 7.654920389060740e-3 7.751207434221957e-3 7.848705621314725e-3
      7.947430184629138e-3 8.047396550079073e-3 8.148620337612504e-3 8.251117363652194e-3
      8.354903643566979e-3 8.459995394174257e-3 8.566409036273869e-3 8.674161197213886e-3
      8.783268713488695e-3 8.893748633369684e-3 9.005618219569110e-3 9.118894951937415e-3
      9.233596530194498e-3 9.349740876695311e-3 9.467346139230315e-3 9.586430693861036e-3
      9.707013147791418e-3 9.829112342275215e-3 9.952747355559968e-3 1.007793750586806e-2
      1.020470235441516e-2 1.033306170846678e-2 1.046303562443311e-2 1.059464441100297e-2
      1.072790863231702e-2 1.086284911118097e-2 1.099948693231919e-2 1.113784344566921e-2
      1.127794026971773e-2 1.141979929487854e-2 1.156344268691294e-2 1.170889289039318e-2
      1.185617263220947e-2 1.200530492512111e-2 1.215631307135228e-2 1.230922066623307e-2
      1.246405160188626e-2 1.262083007096056e-2 1.277958057041071e-2 1.294032790532525e-2
      1.310309719280230e-2 1.326791386587419e-2 1.343480367748140e-2 1.360379270449653e-2
      1.377490735179888e-2 1.394817435640021e-2 1.412362079162252e-2 1.430127407132824e-2
      1.448116195420376e-2 1.466331254809679e-2 1.484775431440821e-2 1.503451607253924e-2
      1.522362700439456e-2 1.541511665894202e-2 1.560901495682975e-2 1.580535219506128e-2
      1.600415905172952e-2 1.620546659081031e-2 1.640930626701617e-2 1.661570993071126e-2
      1.682470983288796e-2 1.703633863020617e-2 1.725062939009607e-2 1.746761559592482e-2
      1.768733115222859e-2 1.790981039001005e-2 1.813508807210275e-2 1.836319939860283e-2
      1.859418001236915e-2 1.882806600459257e-2 1.906489392043521e-2 1.930470076474074e-2
      1.954752400781648e-2 1.979340159128818e-2 2.004237193402851e-2 2.029447393816007e-2
      2.054974699513388e-2 2.080823099188448e-2 2.106996631706220e-2 2.133499386734417e-2
      2.160335505382430e-2 2.187509180848395e-2 2.215024659074390e-2 2.242886239409865e-2
      2.271098275283439e-2 2.299665174883110e-2 2.328591401845062e-2 2.357881475951109e-2
      2.387539973834917e-2 2.417571529697128e-2 2.447980836029441e-2 2.478772644347839e-2
      2.509951765935019e-2 2.541523072592160e-2 2.573491497400166e-2 2.605862035490449e-2
      2.638639744825445e-2 2.671829746988924e-2 2.705437227986248e-2 2.739467439054701e-2
      2.773925697483997e-2 2.808817387447121e-2 2.844147960841616e-2 2.879922938141454e-2
      2.916147909259629e-2 2.952828534421574e-2 2.989970545049598e-2 3.027579744658429e-2
      3.065662009762020e-2 3.104223290791776e-2 3.143269613026309e-2 3.182807077532909e-2
      3.222841862120846e-2 3.263380222306658e-2 3.304428492291608e-2 3.345993085951390e-2
      3.388080497838328e-2 3.430697304196157e-2 3.473850163987570e-2 3.517545819934713e-2
      3.561791099572723e-2 3.606592916316562e-2 3.651958270541247e-2 3.697894250675666e-2
      3.744408034310181e-2 3.791506889318114e-2 3.839198174991384e-2 3.887489343190405e-2
      3.936387939508456e-2 3.985901604450701e-2 4.036038074628022e-2 4.086805183965886e-2
      4.138210864928416e-2 4.190263149757842e-2 4.242970171729577e-2 4.296340166423035e-2
      4.350381473008469e-2 4.405102535549982e-2 4.460511904324918e-2 4.516618237159894e-2
      4.573430300783555e-2 4.630956972196431e-2 4.689207240057968e-2 4.748190206091024e-2
      4.807915086504056e-2 4.868391213431133e-2 4.929628036390129e-2 4.991635123759214e-2
      5.054422164271946e-2 5.117998968531149e-2 5.182375470541835e-2 5.247561729263419e-2
      5.313567930181449e-2 5.380404386899100e-2 5.448081542748728e-2 5.516609972423618e-2
      5.586000383630330e-2 5.656263618761789e-2 5.727410656591435e-2 5.799452613988684e-2
      5.872400747655947e-2 5.946266455887525e-2 6.021061280350606e-2 6.096796907888682e-2
      6.173485172347650e-2 6.251138056424850e-2 6.329767693541408e-2 6.409386369738091e-2
      6.490006525595041e-2 6.571640758175640e-2 6.654301822994811e-2 6.738002636012107e-2
      6.822756275649854e-2 6.908575984836669e-2 6.995475173076729e-2 7.083467418544988e-2
      7.172566470208819e-2 7.262786249976321e-2 7.354140854871628e-2 7.446644559237631e-2
      7.540311816966332e-2 7.635157263757319e-2 7.731195719404614e-2 7.828442190112299e-2
      7.926911870839284e-2 8.026620147673517e-2 8.127582600236110e-2 8.229815004115684e-2
      8.333333333333332e-2 8.438153762838622e-2 8.544292671036912e-2 8.651766642348546e-2
      8.760592469800205e-2 8.870787157648829e-2 8.982367924038599e-2 9.095352203691267e-2
      9.209757650630401e-2 9.325602140939843e-2 9.442903775556887e-2 9.561680883100603e-2
      9.681952022735697e-2 9.803735987072425e-2 9.927051805102993e-2 1.005191874517484e-1
      1.017835631800142e-1 1.030638427971071e-1 1.043602263493221e-1 1.056729163992267e-1
      1.070021180573118e-1 1.083480390140410e-1 1.097108895723018e-1 1.110908826802670e-1
      1.124882339646670e-1 1.139031617644830e-1 1.153358871650626e-1 1.167866340326645e-1
      1.182556290494382e-1 1.197431017488438e-1 1.212492845515168e-1 1.227744128015847e-1
      1.243187248034392e-1 1.258824618589728e-1 1.274658683052816e-1 1.290691915528444e-1
      1.306926821241807e-1 1.323365936929953e-1 1.340011831238153e-1 1.356867105121259e-1
      1.373934392250107e-1 1.391216359423036e-1 1.408715706982576e-1 1.426435169237388e-1
      1.444377514889497e-1 1.462545547466916e-1 1.480942105761699e-1 1.499570064273508e-1
      1.518432333658758e-1 1.537531861185417e-1 1.556871631193518e-1 1.576454665561475e-1
      1.596284024178247e-1 1.616362805421463e-1 1.636694146641541e-1 1.657281224651910e-1
      1.678127256225398e-1 1.699235498596846e-1 1.720609249972073e-1 1.742251850043214e-1
      1.764166680510562e-1 1.786357165610966e-1 1.808826772652869e-1 1.831579012558086e-1
      1.854617440410391e-1 1.877945656011007e-1 1.901567304441087e-1 1.925486076631254e-1
      1.949705709938327e-1 1.974229988729285e-1 1.999062744972582e-1 2.024207858836907e-1
      2.049669259297459e-1 2.075450924749860e-1 2.101556883631791e-1 2.127991215052439e-1
      2.154758049429872e-1 2.181861569136418e-1 2.209306009152173e-1 2.237095657726727e-1
      2.265234857049204e-1 2.293728003926756e-1 2.322579550471543e-1 2.351794004796416e-1
      2.381375931719305e-1 2.411329953476468e-1 2.441660750444754e-1 2.472373061872891e-1
      2.503471686622027e-1 2.534961483915555e-1 2.566847374098360e-1 2.599134339405663e-1
      2.631827424741474e-1 2.664931738466895e-1 2.698452453198303e-1 2.732394806615561e-1
      2.766764102280459e-1 2.801565710465359e-1 2.836805068992348e-1 2.872487684082898e-1
      2.908619131218201e-1 2.945205056010394e-1 2.982251175084651e-1 3.019763276972451e-1
      3.057747223016039e-1 3.096208948284253e-1 3.135154462499929e-1 3.174589850978886e-1
      3.214521275580811e-1 3.254954975672046e-1 3.295897269100481e-1 3.337354553182774e-1
      3.379333305703897e-1 3.421840085929342e-1 3.464881535630009e-1 3.508464380119967e-1
      3.552595429307352e-1 3.597281578758371e-1 3.642529810774797e-1 3.688347195484948e-1
      3.734740891948387e-1 3.781718149274589e-1 3.829286307755575e-1 3.877452800012890e-1
      3.926225152158954e-1 3.975610984973002e-1 4.025618015091903e-1 4.076254056215839e-1
      4.127527020329261e-1 4.179444918937135e-1 4.232015864316734e-1 4.285248070785243e-1
      4.339149855983209e-1 4.393729642174241e-1 4.448995957560983e-1 4.504957437617639e-1
      4.561622826439338e-1 4.619000978108353e-1 4.677100858077629e-1 4.735931544571623e-1
      4.795502230004775e-1 4.855822222417900e-1 4.916900946932515e-1 4.978747947223601e-1
      5.041372887010792e-1 5.104785551568321e-1 5.168995849254060e-1 5.234013813057638e-1
      5.299849602168191e-1 5.366513503561720e-1 5.434015933608427e-1 5.502367439700362e-1
      5.571578701899393e-1 5.641660534606061e-1 5.712623888249318e-1 5.784479850997529e-1
      5.857239650491084e-1 5.930914655596665e-1 6.005516378183721e-1 6.081056474923198e-1
      6.157546749108875e-1 6.234999152501738e-1 6.313425787197374e-1 6.392838907517024e-1
      6.473250921922315e-1 6.554674394954077e-1 6.637122049195651e-1 6.720606767260730e-1
      6.805141593806372e-1 6.890739737571229e-1 6.977414573439388e-1 7.065179644530319e-1
      7.154048664314914e-1 7.244035518758335e-1 7.335154268489678e-1 7.427419150998947e-1
      7.520844582861775e-1 7.615445161991939e-1 7.711235669922408e-1 7.808231074114946e-1
      7.906446530298772e-1 8.005897384838759e-1 8.106599177133239e-1 8.208567642042151e-1
      8.311818712345605e-1 8.416368521233379e-1 8.522233404825842e-1 8.629429904726413e-1
      8.737974770606309e-1 8.847884962821675e-1 8.959177655063629e-1 9.071870237041791e-1
      9.185980317201338e-1 9.301525725474470e-1 9.418524516066324e-1 9.536994970275934e-1
      9.656955599352836e-1 9.778425147389346e-1 9.901422594249496e-1 1.002596715853462e0
      1.015207830058623e0 1.027977572552689e0 1.040907938633901e0 1.054000948698268e0
      1.067258648555254e0 1.080683109747428e0 1.094276429874169e0 1.108040732919399e0
      1.121978169583476e0 1.136090917619230e0 1.150381182172258e0 1.164851196125471e0
      1.179503220447984e0 1.194339544548412e0 1.209362486632577e0 1.224574394065745e0
      1.239977643739404e0 1.255574642442649e0 1.271367827238265e0 1.287359665843502e0
      1.303552657015681e0 1.319949330942619e0 1.336552249637973e0 1.353364007341572e0
      1.370387230924755e0 1.387624580300845e0 1.405078748840754e0 1.422752463793822e0
      1.440648486713972e0 1.458769613891191e0 1.477118676788470e0 1.495698542484221e0
      1.514512114120256e0 1.533562331355423e0 1.552852170824918e0 1.572384646605407e0
      1.592162810685972e0 1.612189753444985e0 1.632468604133002e0 1.653002531361694e0
      1.673794743598972e0 1.694848489670302e0 1.716167059266336e0 1.737753783456953e0
      1.759612035211719e0 1.781745229926945e0 1.804156825959340e0 1.826850325166373e0
      1.849829273453472e0 1.873097261328052e0 1.896657924460561e0 1.920514944252550e0
      1.944672048411894e0 1.969133011535271e0 1.993901655697929e0 2.018981851050915e0
      2.044377516425781e0 2.070092619946904e0 2.096131179651533e0 2.122497264117591e0
      2.149194993099422e0 2.176228538171499e0 2.203602123380234e0 2.231320025904013e0
      2.259386576721492e0 2.287806161288342e0 2.316583220222474e0 2.345722249997888e0
      2.375227803647276e0 2.405104491473419e0 2.435356981769579e0 2.465990001548915e0
      2.497008337283086e0 2.528416835650163e0 2.560220404291911e0 2.592424012580639e0
      2.625032692395664e0 2.658051538909542e0 2.691485711384227e0 2.725340433977181e0
      2.759620996557693e0 2.794332755533414e0 2.829481134687296e0 2.865071626025102e0
      2.901109790633504e0 2.937601259549045e0 2.974551734637993e0 3.011966989487245e0
      3.049852870306503e0 3.088215296841716e0 3.127060263300084e0 3.166393839286650e0
      3.206222170752678e0 3.246551480956002e0 3.287388071433380e0 3.328738322985161e0
      3.370608696672286e0 3.413005734825817e0 3.455936062069235e0 3.499406386353501e0
      3.543423500005232e0 3.587994280787997e0 3.633125692976959e0 3.678824788447107e0
      3.725098707775071e0 3.771954681354897e0 3.819400030527792e0 3.867442168726081e0
      3.916088602631612e0 3.965346933348642e0 4.015224857591568e0 4.065730168887538e0
      4.116870758794183e0 4.168654618132734e0 4.221089838236556e0 4.274184612215476e0
      4.327947236235958e0 4.382386110817371e0 4.437509742144641e0 4.493326743397297e0
      4.549845836095353e0 4.607075851462040e0 4.665025731803680e0 4.723704531906989e0
      4.783121420453853e0 4.843285681453999e0 4.904206715695621e0 4.965894042214249e0
      5.028357299780171e0 5.091606248404448e0 5.155650770863990e0 5.220500874245743e0
      5.286166691510279e0 5.352658483075163e0 5.419986638418084e0 5.488161677700308e0
      5.557194253410434e0 5.627095152028846e0 5.697875295713185e0 5.769545744004887e0
      5.842117695557321e0 5.915602489885578e0 5.990011609138256e0 6.065356679891646e0
      6.141649474966321e0 6.218901915266742e0 6.297126071643890e0 6.376334166781324e0
      6.456538577105081e0 6.537751834717429e0 6.619986629355111e0 6.703255810372109e0
      6.787572388747345e0 6.872949539117760e0 6.959400601836773e0 7.046939085058834e0
      7.135578666850055e0 7.225333197325408e0 7.316216700812910e0 7.408243378044861e0
      7.501427608376818e0 7.595783952034370e0 7.691327152388157e0 7.788072138257646e0
      7.886034026243679e0 7.985228123090573e0 8.085669928077786e0 8.187375135441672e0
      8.290359636827828e0 8.394639523774094e0 8.500231090224974e0 8.607150835077571e0
      8.715415464759518e0 8.825041895839503e0 8.936047257670380e0 9.048448895065800e0
      9.162264371010300e0 9.277511469403530e0 9.394208197839111e0 9.512372790418253e0
      9.632023710598972e0 9.753179654080993e0 9.875859551726945e0 1.000008257252046e1
      1.012586812656125e1 1.025323586809805e1 1.038220569859962e1 1.051279776986435e1
      1.064503248716909e1 1.077893051245741e1 1.091451276756822e1 1.105180043750472e1
      1.119081497374463e1 1.133157809759209e1 1.147411180357156e1 1.161843836286460e1
      1.176458032678975e1 1.191256053032617e1 1.206240209568176e1 1.221412843590593e1
      1.236776325854805e1 1.252333056936175e1 1.268085467605580e1 1.284036019209241e1
      1.300187204053293e1 1.316541545793229e1 1.333101599828223e1 1.349869953700403e1
      1.366849227499183e1 1.384042074270634e1 1.401451180432046e1 1.419079266191676e1
      1.436929085973786e1 1.455003428849037e1 1.473305118970271e1 1.491837016013806e1
      1.510602015626262e1 1.529603049877000e1 1.548843087716286e1 1.568325135439171e1
      1.588052237155250e1 1.608027475264305e1 1.628253970937925e1 1.648734884607214e1
      1.669473416456599e1 1.690472806923874e1 1.711736337206528e1 1.733267329774422e1
      1.755069148888956e1 1.777145201128717e1 1.799498935921784e1 1.822133846084702e1
      1.845053468368226e1 1.868261384009977e1 1.891761219293984e1 1.915556646117324e1
      1.939651382563853e1 1.964049193485155e1 1.988753891088832e1 2.013769335534140e1
      2.039099435535170e1 2.064748148971586e1 2.090719483507038e1 2.117017497215394e1
      2.143646299214792e1 2.170610050309723e1 2.197912963641160e1 2.225559305344851e1
      2.253553395217942e1 2.281899607393922e1 2.310602371026117e1 2.339666170979746e1
      2.369095548532675e1 2.398895102085028e1 2.429069487877668e1 2.459623420719769e1
      2.490561674725505e1 2.521889084059999e1 2.553610543694705e1 2.585731010172220e1
      2.618255502380785e1 2.651189102338484e1 2.684536955987305e1 2.718304273997236e1
      2.752496332580408e1 2.787118474315542e1 2.822176108982730e1 2.857674714408704e1
      2.893619837322793e1 2.930017094223574e1 2.966872172256492e1 3.004190830102481e1
      3.041978898877741e1 3.080242283044910e1 3.118986961335601e1 3.158218987684630e1
      3.197944492175935e1 3.238169682000407e1 3.278900842425804e1 3.320144337778800e1
      3.361906612439459e1 3.404194191848172e1 3.447013683525240e1 3.490371778103369e1
      3.534275250373038e1 3.578730960341116e1 3.623745854302739e1 3.669326965926658e1
      3.715481417354313e1 3.762216420312630e1 3.809539277240908e1 3.857457382431830e1
      3.905978223186809e1 3.955109380985941e1 4.004858532672578e1 4.055233451652894e1
      4.106242009110473e1 4.157892175236184e1 4.210192020473579e1 4.263149716779869e1
      4.316773538902850e1 4.371071865673837e1 4.426053181316843e1 4.481726076774311e1
      4.538099251049412e1 4.595181512565324e1 4.652981780541550e1 4.711509086387543e1
      4.770772575113932e1 4.830781506761387e1 4.891545257847574e1 4.953073322832235e1
      5.015375315600686e1 5.078460970966068e1 5.142340146190364e1 5.207022822524674e1
      5.272519106768784e1 5.338839232850341e1 5.405993563423992e1 5.473992591490498e1
      5.542846942036348e1 5.612567373693913e1 5.683164780422462e1 5.754650193210453e1
      5.827034781799049e1 5.900329856427495e1 5.974546869600332e1 6.049697417876845e1
      6.125793243683116e1 6.202846237146725e1 6.280868437954678e1 6.359872037234598e1
      6.439869379459584e1 6.520872964377138e1 6.602895448962184e1 6.685949649394825e1
      6.770048543062867e1 6.855205270589521e1 6.941433137886740e1 7.028745618234196e1
      7.117156354384597e1 7.206679160695349e1 7.297328025287050e1 7.389117112229243e1
      7.482060763753487e1 7.576173502494436e1 7.671470033759009e1 7.767965247824070e1
      7.865674222263165e1 7.964612224302313e1 8.064794713205639e1 8.166237342690868e1
      8.268955963375218e1 8.372966625252182e1 8.478285580199261e1 8.584929284517449e1
      8.692914401502533e1 8.802257804048709e1 8.912976577285118e1 9.025088021245301e1
      9.138609653570489e1 9.253559212246710e1 9.369954658376338e1 9.487814178984676e1
      9.607156189861572e1 9.727999338439044e1 9.850362506704933e1 9.974264814153196e1
      1.009972562077149e2
      </PP_R>
    <PP_RAB>
      9.498770474526214e-7 9.618250298635649e-7 9.739232993922730e-7 9.861737464179729e-7
      9.985782850979374e-7 1.011138853666572e-6 1.023857414738269e-6 1.036735955614075e-6
      1.049776488592199e-6 1.062981051282453e-6 1.076351706924622e-6 1.089890544710853e-6
      1.103599680112094e-6 1.117481255208642e-6 1.131537439024852e-6 1.145770427868040e-6
      1.160182445671670e-6 1.174775744342846e-6 1.189552604114174e-6 1.204515333900060e-6
      1.219666271657474e-6 1.235007784751263e-6 1.250542270324063e-6 1.266272155670849e-6
      1.282199898618209e-6 1.298327987908385e-6 1.314658943588140e-6 1.331195317402525e-6
      1.347939693193592e-6 1.364894687304125e-6 1.382062948986450e-6 1.399447160816382e-6
      1.417050039112389e-6 1.434874334360018e-6 1.452922831641665e-6 1.471198351071752e-6
      1.489703748237369e-6 1.508441914644474e-6 1.527415778169691e-6 1.546628303517799e-6
      1.566082492684971e-6 1.585781385427846e-6 1.605728059738490e-6 1.625925632325346e-6
      1.646377259100226e-6 1.667086135671421e-6 1.688055497843028e-6 1.709288622120548e-6
      1.730788826222848e-6 1.752559469600564e-6 1.774603953961014e-6 1.796925723799732e-6
      1.819528266938667e-6 1.842415115071167e-6 1.865589844313823e-6 1.889056075765224e-6
      1.912817476071778e-6 1.936877758000626e-6 1.961240681019768e-6 1.985910051885496e-6
      2.010889725237197e-6 2.036183604199653e-6 2.061795640992913e-6 2.087729837549833e-6
      2.113990246141389e-6 2.140580970009853e-6 2.167506164009926e-6 2.194770035257952e-6
      2.222376843789279e-6 2.250330903223912e-6 2.278636581440505e-6 2.307298301258872e-6
      2.336320541131045e-6 2.365707835841049e-6 2.395464777213475e-6 2.425596014830953e-6
      2.456106256760660e-6 2.487000270289972e-6 2.518282882671358e-6 2.549958981876649e-6
      2.582033517360791e-6 2.614511500835207e-6 2.647398007050894e-6 2.680698174591354e-6
      2.714417206675520e-6 2.748560371970752e-6 2.783133005416095e-6 2.818140509055862e-6
      2.853588352883717e-6 2.889482075697384e-6 2.925827285964076e-6 2.962629662696841e-6
      2.999894956341920e-6 3.037628989677258e-6 3.075837658722340e-6 3.114526933659437e-6
      3.153702859766474e-6 3.193371558361607e-6 3.233539227759696e-6 3.274212144240813e-6
      3.315396663030904e-6 3.357099219294819e-6 3.399326329141822e-6 3.442084590643732e-6
      3.485380684865909e-6 3.529221376911158e-6 3.573613516976807e-6 3.618564041425056e-6
      3.664079973866800e-6 3.710168426259093e-6 3.756836600016386e-6 3.804091787135774e-6